------------------------------------------------------------
          Invoking FHI-aims ...

          When using FHI-aims, please cite the following reference:

            Volker Blum, Ralf Gehrke, Felix Hanke, Paula Havu,
            Ville Havu, Xinguo Ren, Karsten Reuter, and Matthias Scheffler,
            'Ab Initio Molecular Simulations with Numeric Atom-Centered Orbitals',
            Computer Physics Communications 180, 2175-2196 (2009)

          In addition, many other developments in FHI-aims are likely important for
          your particular application. If so, please cite them. A partial list of references
          is written at the end of this file. Thank you for giving credit to the authors
          of these developments.

          For general information about FHI-aims please find us at

            https://fhi-aims.org

          Online tutorials can be found at

            https://fhi-aims-club.gitlab.io/tutorials/tutorials-overview/

          For any questions about FHI-aims, please visit our slack channel at

            https://fhi-aims.slack.com

          and our main development and support site at

            https://aims-git.rz-berlin.mpg.de .

          The latter site, in particular, has a wiki to collect information, as well
          as an issue tracker to log discussions, suggest improvements, and report issues
          or bugs. https://aims-git.rz-berlin.mpg.de is also the main development site
          of the project and all new and updated code versions can be obtained there.
          Please send an email to aims-coordinators@fhi-berlin.mpg.de and we will add
          you to these sites. They are for you and everyone is welcome there.

------------------------------------------------------------



  Date     :  20260521, Time     :  195831.885
  Time zero on CPU 1             :   0.133989500000000E+01  s.
  Internal wall clock time zero  :           548625511.885  s.

  FHI-aims created a unique identifier for this run for later identification
  aims_uuid : E9896D66-690E-4478-AE30-2521DF9F6D7D

  Build configuration of the current instance of FHI-aims
  -------------------------------------------------------
  FHI-aims version      : 250822
  Commit number         : GITDIR-NOTFOUND
  CMake host system     : Linux-4.18.0-553.46.1.el8_10.x86_64
  CMake version         : 3.26.5
  OS Distribution       : Red Hat Enterprise Linux 8.10 (Ootpa)
  Built on              : AMD EPYC 7402 24-Core Processor
  Fortran compiler      : /appl/spack/v017/install-tree/gcc-11.2.0/openmpi-4.1.2-h6c3ze/bin/mpifort (GNU) version 11.2.0
  Fortran compiler flags: -O3 -march=native -ffree-line-length-none -fallow-argument-mismatch
  C compiler            : /appl/spack/v017/install-tree/gcc-8.5.0/gcc-11.2.0-zshp2k/bin/gcc (GNU) version 11.2.0
  C compiler flags      : -O3 -march=native -DNDEBUG -funroll-loops
  C++ compiler          : /appl/spack/v017/install-tree/gcc-8.5.0/gcc-11.2.0-zshp2k/bin/g++ (GNU) version 11.2.0
  C++ compiler flags    : -O3 -march=native -DNDEBUG -funroll-loops
  HIP compiler          :
  HIP compiler flags    :
  HIP GPU arch          :
  ELPA2 kernel          : AVX2
  Using MPI
  Using ScaLAPACK
  Using LibXC
  Using i-PI
  Using RLSY
  Linking against: /appl/spack/v017/install-tree/gcc-11.2.0/netlib-scalapack-2.1.0-ia2oka/lib/libscalapack.so
                   /appl/spack/v017/install-tree/gcc-11.2.0/openblas-0.3.18-eb6g7n/lib/libopenblas.so

  Using      128 parallel tasks.
  Task        0 on host c3238.mahti.csc.fi reporting.
  Task        1 on host c3238.mahti.csc.fi reporting.
  Task        2 on host c3238.mahti.csc.fi reporting.
  Task        3 on host c3238.mahti.csc.fi reporting.
  Task        4 on host c3238.mahti.csc.fi reporting.
  Task        5 on host c3238.mahti.csc.fi reporting.
  Task        6 on host c3238.mahti.csc.fi reporting.
  Task        7 on host c3238.mahti.csc.fi reporting.
  Task        8 on host c3238.mahti.csc.fi reporting.
  Task        9 on host c3238.mahti.csc.fi reporting.
  Task       10 on host c3238.mahti.csc.fi reporting.
  Task       11 on host c3238.mahti.csc.fi reporting.
  Task       12 on host c3238.mahti.csc.fi reporting.
  Task       13 on host c3238.mahti.csc.fi reporting.
  Task       14 on host c3238.mahti.csc.fi reporting.
  Task       15 on host c3238.mahti.csc.fi reporting.
  Task       16 on host c3238.mahti.csc.fi reporting.
  Task       17 on host c3238.mahti.csc.fi reporting.
  Task       18 on host c3238.mahti.csc.fi reporting.
  Task       19 on host c3238.mahti.csc.fi reporting.
  Task       20 on host c3238.mahti.csc.fi reporting.
  Task       21 on host c3238.mahti.csc.fi reporting.
  Task       22 on host c3238.mahti.csc.fi reporting.
  Task       23 on host c3238.mahti.csc.fi reporting.
  Task       24 on host c3238.mahti.csc.fi reporting.
  Task       25 on host c3238.mahti.csc.fi reporting.
  Task       26 on host c3238.mahti.csc.fi reporting.
  Task       27 on host c3238.mahti.csc.fi reporting.
  Task       28 on host c3238.mahti.csc.fi reporting.
  Task       29 on host c3238.mahti.csc.fi reporting.
  Task       30 on host c3238.mahti.csc.fi reporting.
  Task       31 on host c3238.mahti.csc.fi reporting.
  Task       32 on host c3238.mahti.csc.fi reporting.
  Task       33 on host c3238.mahti.csc.fi reporting.
  Task       34 on host c3238.mahti.csc.fi reporting.
  Task       35 on host c3238.mahti.csc.fi reporting.
  Task       36 on host c3238.mahti.csc.fi reporting.
  Task       37 on host c3238.mahti.csc.fi reporting.
  Task       38 on host c3238.mahti.csc.fi reporting.
  Task       39 on host c3238.mahti.csc.fi reporting.
  Task       40 on host c3238.mahti.csc.fi reporting.
  Task       41 on host c3238.mahti.csc.fi reporting.
  Task       42 on host c3238.mahti.csc.fi reporting.
  Task       43 on host c3238.mahti.csc.fi reporting.
  Task       44 on host c3238.mahti.csc.fi reporting.
  Task       45 on host c3238.mahti.csc.fi reporting.
  Task       46 on host c3238.mahti.csc.fi reporting.
  Task       47 on host c3238.mahti.csc.fi reporting.
  Task       48 on host c3238.mahti.csc.fi reporting.
  Task       49 on host c3238.mahti.csc.fi reporting.
  Task       50 on host c3238.mahti.csc.fi reporting.
  Task       51 on host c3238.mahti.csc.fi reporting.
  Task       52 on host c3238.mahti.csc.fi reporting.
  Task       53 on host c3238.mahti.csc.fi reporting.
  Task       54 on host c3238.mahti.csc.fi reporting.
  Task       55 on host c3238.mahti.csc.fi reporting.
  Task       56 on host c3238.mahti.csc.fi reporting.
  Task       57 on host c3238.mahti.csc.fi reporting.
  Task       58 on host c3238.mahti.csc.fi reporting.
  Task       59 on host c3238.mahti.csc.fi reporting.
  Task       60 on host c3238.mahti.csc.fi reporting.
  Task       61 on host c3238.mahti.csc.fi reporting.
  Task       62 on host c3238.mahti.csc.fi reporting.
  Task       63 on host c3238.mahti.csc.fi reporting.
  Task       64 on host c3238.mahti.csc.fi reporting.
  Task       65 on host c3238.mahti.csc.fi reporting.
  Task       66 on host c3238.mahti.csc.fi reporting.
  Task       67 on host c3238.mahti.csc.fi reporting.
  Task       68 on host c3238.mahti.csc.fi reporting.
  Task       69 on host c3238.mahti.csc.fi reporting.
  Task       70 on host c3238.mahti.csc.fi reporting.
  Task       71 on host c3238.mahti.csc.fi reporting.
  Task       72 on host c3238.mahti.csc.fi reporting.
  Task       73 on host c3238.mahti.csc.fi reporting.
  Task       74 on host c3238.mahti.csc.fi reporting.
  Task       75 on host c3238.mahti.csc.fi reporting.
  Task       76 on host c3238.mahti.csc.fi reporting.
  Task       77 on host c3238.mahti.csc.fi reporting.
  Task       78 on host c3238.mahti.csc.fi reporting.
  Task       79 on host c3238.mahti.csc.fi reporting.
  Task       80 on host c3238.mahti.csc.fi reporting.
  Task       81 on host c3238.mahti.csc.fi reporting.
  Task       82 on host c3238.mahti.csc.fi reporting.
  Task       83 on host c3238.mahti.csc.fi reporting.
  Task       84 on host c3238.mahti.csc.fi reporting.
  Task       85 on host c3238.mahti.csc.fi reporting.
  Task       86 on host c3238.mahti.csc.fi reporting.
  Task       87 on host c3238.mahti.csc.fi reporting.
  Task       88 on host c3238.mahti.csc.fi reporting.
  Task       89 on host c3238.mahti.csc.fi reporting.
  Task       90 on host c3238.mahti.csc.fi reporting.
  Task       91 on host c3238.mahti.csc.fi reporting.
  Task       92 on host c3238.mahti.csc.fi reporting.
  Task       93 on host c3238.mahti.csc.fi reporting.
  Task       94 on host c3238.mahti.csc.fi reporting.
  Task       95 on host c3238.mahti.csc.fi reporting.
  Task       96 on host c3238.mahti.csc.fi reporting.
  Task       97 on host c3238.mahti.csc.fi reporting.
  Task       98 on host c3238.mahti.csc.fi reporting.
  Task       99 on host c3238.mahti.csc.fi reporting.
  Task      100 on host c3238.mahti.csc.fi reporting.
  Task      101 on host c3238.mahti.csc.fi reporting.
  Task      102 on host c3238.mahti.csc.fi reporting.
  Task      103 on host c3238.mahti.csc.fi reporting.
  Task      104 on host c3238.mahti.csc.fi reporting.
  Task      105 on host c3238.mahti.csc.fi reporting.
  Task      106 on host c3238.mahti.csc.fi reporting.
  Task      107 on host c3238.mahti.csc.fi reporting.
  Task      108 on host c3238.mahti.csc.fi reporting.
  Task      109 on host c3238.mahti.csc.fi reporting.
  Task      110 on host c3238.mahti.csc.fi reporting.
  Task      111 on host c3238.mahti.csc.fi reporting.
  Task      112 on host c3238.mahti.csc.fi reporting.
  Task      113 on host c3238.mahti.csc.fi reporting.
  Task      114 on host c3238.mahti.csc.fi reporting.
  Task      115 on host c3238.mahti.csc.fi reporting.
  Task      116 on host c3238.mahti.csc.fi reporting.
  Task      117 on host c3238.mahti.csc.fi reporting.
  Task      118 on host c3238.mahti.csc.fi reporting.
  Task      119 on host c3238.mahti.csc.fi reporting.
  Task      120 on host c3238.mahti.csc.fi reporting.
  Task      121 on host c3238.mahti.csc.fi reporting.
  Task      122 on host c3238.mahti.csc.fi reporting.
  Task      123 on host c3238.mahti.csc.fi reporting.
  Task      124 on host c3238.mahti.csc.fi reporting.
  Task      125 on host c3238.mahti.csc.fi reporting.
  Task      126 on host c3238.mahti.csc.fi reporting.
  Task      127 on host c3238.mahti.csc.fi reporting.

  Obtaining array dimensions for all initial allocations:
  
  -----------------------------------------------------------------------
  Parsing control.in (first pass over file, find array dimensions only).
  The contents of control.in will be repeated verbatim below
  unless switched off by setting 'verbatim_writeout .false.' .
  in the first line of control.in .
  -----------------------------------------------------------------------
  
  xc            pbe
  relativistic  atomic_zora scalar
  vdw_correction_hirshfeld
  relax_geometry bfgs 1e-2
  output_level MD_light
  k_grid 1 1 1
  sc_accuracy_rho 1e-06
  use_dipole_correction .true.
  
  ################################################################################
  #
  #  FHI-aims code project
  #  VB, Fritz-Haber Institut, 2009
  #
  #  Suggested "light" defaults for Ag atom (to be pasted into control.in file)
  #  Be sure to double-check any results obtained with these settings for post-processing,
  #  e.g., with the "tight" defaults and larger basis sets.
  #
  ################################################################################
    species        Ag
  #     global species definitions
      nucleus             47
      mass                107.8682
  #
      l_hartree           4
  #
      cut_pot             3.5  1.5  1.0
      basis_dep_cutoff    1e-4
  #
      radial_base         62 5.0
      radial_multiplier   1
      angular_grids specified
        division   0.5617   50
        division   0.9788  110
        division   1.2700  194
        division   1.5678  302
  #      division   2.1195  434
  #      division   2.1949  590
  #      division   2.2741  770
  #      division   2.8497 1202
  #      outer_grid  974
        outer_grid  302
  ################################################################################
  #
  #  Definition of "minimal" basis
  #
  ################################################################################
  #     valence basis states
      valence      5  s   1.
      valence      4  p   6.
      valence      4  d  10.
  #     ion occupancy
      ion_occ     5  s   0.
      ion_occ     4  p   6.
      ion_occ     4  d   9.
  ################################################################################
  #
  #  Suggested additional basis functions. For production calculations,
  #  uncomment them one after another (the most important basis functions are
  #  listed first).
  #
  #  Constructed for dimers: 2.1 A, 2.45 A, 3.00 A, 4.00 A
  #
  ################################################################################
  #  "First tier" - max. impr. -144.99  meV, min. impr. -3.42 meV
       ionic 5 p auto
       hydro 4 f 7.6
       hydro 3 s 2.6
  #     hydro 5 g 9.8
       hydro 4 d 8.4
  #  "Second tier" - max. impr. -3.10  meV, min. impr. -0.64 meV
  #     hydro 5 f 16.8
  #     hydro 6 h 13.2
  #     hydro 4 p 5
  #     hydro 4 d 4.3
  #     hydro 5 s 17.2
  #  "Third tier" - max. impr. -0.48  meV, min. impr. -0.12 meV
  #     hydro 4 f 19.2
  #     hydro 5 f 8.4
  #     hydro 6 p 12
  #     hydro 5 g 12.8
  #     hydro 5 d 8.4
  #     hydro 5 s 5.8
  #     hydro 6 h 15.2
  
  
  
  ################################################################################
  #
  #  FHI-aims code project
  #  VB, Fritz-Haber Institut, 2009
  #
  #  Suggested "light" defaults for C atom (to be pasted into control.in file)
  #  Be sure to double-check any results obtained with these settings for post-processing,
  #  e.g., with the "tight" defaults and larger basis sets.
  #
  ################################################################################
    species        C
  #     global species definitions
      nucleus             6
      mass                12.0107
  #
      l_hartree           4
  #
      cut_pot             3.5  1.5  1.0
      basis_dep_cutoff    1e-4
  #
      radial_base         34 5.0
      radial_multiplier   1
      angular_grids specified
        division   0.3326   50
        division   0.5710  110
        division   0.7727  194
        division   0.8772  302
  #      division   0.9334  434
  #      division   0.9625  590
  #      division   0.9924  770
  #      division   1.0230  974
  #      division   1.4589 1202
  #     outer_grid  974
       outer_grid 302
  ################################################################################
  #
  #  Definition of "minimal" basis
  #
  ################################################################################
  #     valence basis states
      valence      2  s   2.
      valence      2  p   2.
  #     ion occupancy
      ion_occ      2  s   1.
      ion_occ      2  p   1.
  ################################################################################
  #
  #  Suggested additional basis functions. For production calculations,
  #  uncomment them one after another (the most important basis functions are
  #  listed first).
  #
  #  Constructed for dimers: 1.0 A, 1.25 A, 1.5 A, 2.0 A, 3.0 A
  #
  ################################################################################
  #  "First tier" - improvements: -1214.57 meV to -155.61 meV
       hydro 2 p 1.7
       hydro 3 d 6
       hydro 2 s 4.9
  #  "Second tier" - improvements: -67.75 meV to -5.23 meV
  #     hydro 4 f 9.8
  #     hydro 3 p 5.2
  #     hydro 3 s 4.3
  #     hydro 5 g 14.4
  #     hydro 3 d 6.2
  #  "Third tier" - improvements: -2.43 meV to -0.60 meV
  #     hydro 2 p 5.6
  #     hydro 2 s 1.4
  #     hydro 3 d 4.9
  #     hydro 4 f 11.2
  #  "Fourth tier" - improvements: -0.39 meV to -0.18 meV
  #     hydro 2 p 2.1
  #     hydro 5 g 16.4
  #     hydro 4 d 13.2
  #     hydro 3 s 13.6
  #     hydro 4 f 17.6
  #  Further basis functions - improvements: -0.08 meV and below
  #     hydro 3 s 2
  #     hydro 3 p 6
  #     hydro 4 d 20
  
  ################################################################################
  #
  #  FHI-aims code project
  #  VB, Fritz-Haber Institut, 2009
  #
  #  Suggested "light" defaults for Fe atom (to be pasted into control.in file)
  #  Be sure to double-check any results obtained with these settings for post-processing,
  #  e.g., with the "tight" defaults and larger basis sets.
  #
  ################################################################################
    species        Fe
  #     global species definitions
      nucleus             26
      mass                55.845
  #
      l_hartree           4
  #
      cut_pot             3.5          1.5  1.0
      basis_dep_cutoff    1e-4
  #
      radial_base         51 5.0
      radial_multiplier   1
      angular_grids       specified
        division   0.4337   50
        division   0.8154  110
        division   1.1046  194
        division   1.3713  302
  #      division   1.5424  434
  #      division   1.7365  590
  #      division   1.9587  770
  #      division   1.9990  974
  #      division   2.4139 1202
  #      outer_grid  1202
        outer_grid  302
  ################################################################################
  #
  #  Definition of "minimal" basis
  #
  ################################################################################
  #     valence basis states
      valence      4  s   2.
      valence      3  p   6.
      valence      3  d   6.
  #     ion occupancy
      ion_occ      4  s   1.
      ion_occ      3  p   6.
      ion_occ      3  d   5.
  ################################################################################
  #
  #  Suggested additional basis functions. For production calculations,
  #  uncomment them one after another (the most important basis functions are
  #  listed first).
  #
  #  Constructed for dimers: 1.45 A, 1.725 A, 2.25 A, 3.00 A, 4.00 A
  #
  ################################################################################
  #  "First tier" - improvements: -300.53 meV to -10.50 meV
       hydro 4 f 9.4
       hydro 2 p 2.2
  #     hydro 5 g 12.4
       hydro 3 d 3.1
       ionic 4 s auto
  #  "Second tier" - improvements: -16.31 meV to -0.65 meV
  #     hydro 3 d 6.2
  #     hydro 6 h 19.2
  #     hydro 4 f 15.2
  #     hydro 4 f 6.6
  #     hydro 3 p 3
  #     hydro 5 g 13.2
  #     hydro 1 s 0.65
  #  "Third tier" - improvements: -1.60 meV to -0.10 meV
  #     hydro 4 d 7.8
  #     hydro 4 p 19.6
  #     hydro 4 d 10.4
  #     ionic 4 p auto
  #     hydro 6 h 17.6
  #     hydro 5 f 27.2
  #     hydro 4 s 4.8
  #  "Fourth tier": improvements -0.13 meV and below
  #     hydro 5 f 12
  #     hydro 5 g 10.4
  #     hydro 5 p 8.4
  #     hydro 4 d 14.8
  #     hydro 2 s 1.9
  
  ################################################################################
  #
  #  FHI-aims code project
  #  VB, Fritz-Haber Institut, 2009
  #
  #  Suggested "light" defaults for H atom (to be pasted into control.in file)
  #  Be sure to double-check any results obtained with these settings for post-processing,
  #  e.g., with the "tight" defaults and larger basis sets.
  #
  ################################################################################
    species        H
  #     global species definitions
      nucleus             1
      mass                1.00794
  #
      l_hartree           4
  #
      cut_pot             3.5  1.5  1.0
      basis_dep_cutoff    1e-4
  #
      radial_base         24 5.0
      radial_multiplier   1
      angular_grids       specified
        division   0.2421   50
        division   0.3822  110
        division   0.4799  194
        division   0.5341  302
  #      division   0.5626  434
  #      division   0.5922  590
  #      division   0.6542  770
  #      division   0.6868 1202
  #      outer_grid  770
        outer_grid  302
  ################################################################################
  #
  #  Definition of "minimal" basis
  #
  ################################################################################
  #     valence basis states
      valence      1  s   1.
  #     ion occupancy
      ion_occ      1  s   0.5
  ################################################################################
  #
  #  Suggested additional basis functions. For production calculations,
  #  uncomment them one after another (the most important basis functions are
  #  listed first).
  #
  #  Basis constructed for dimers: 0.5 A, 0.7 A, 1.0 A, 1.5 A, 2.5 A
  #
  ################################################################################
  #  "First tier" - improvements: -1014.90 meV to -62.69 meV
       hydro 2 s 2.1
       hydro 2 p 3.5
  #  "Second tier" - improvements: -12.89 meV to -1.83 meV
  #     hydro 1 s 0.85
  #     hydro 2 p 3.7
  #     hydro 2 s 1.2
  #     hydro 3 d 7
  #  "Third tier" - improvements: -0.25 meV to -0.12 meV
  #     hydro 4 f 11.2
  #     hydro 3 p 4.8
  #     hydro 4 d 9
  #     hydro 3 s 3.2
  
  ################################################################################
  #
  #  FHI-aims code project
  #  VB, Fritz-Haber Institut, 2009
  #
  #  Suggested "light" defaults for N atom (to be pasted into control.in file)
  #  Be sure to double-check any results obtained with these settings for post-processing,
  #  e.g., with the "tight" defaults and larger basis sets.
  #
  ################################################################################
    species        N
  #     global species definitions
      nucleus             7
      mass                14.0067
  #
      l_hartree           4
  #
      cut_pot             3.5  1.5  1.0
      basis_dep_cutoff    1e-4
  #
      radial_base         35 5.0
      radial_multiplier   1
      angular_grids       specified
        division   0.2599   50
        division   0.4601  110
        division   0.5885  194
        division   0.6503  302
  #      division   0.6939  434
  #      division   0.7396  590
  #      division   0.7632  770
  #      division   0.8122  974
  #      division   1.1604 1202
  #      outer_grid  974
        outer_grid  302
  ################################################################################
  #
  #  Definition of "minimal" basis
  #
  ################################################################################
  #     valence basis states
      valence      2  s   2.
      valence      2  p   3.
  #     ion occupancy
      ion_occ      2  s   1.
      ion_occ      2  p   2.
  ################################################################################
  #
  #  Suggested additional basis functions. For production calculations,
  #  uncomment them one after another (the most important basis functions are
  #  listed first).
  #
  #  Constructed for dimers: 1.0 A, 1.1 A, 1.5 A, 2.0 A, 3.0 A
  #
  ################################################################################
  #  "First tier" - improvements: -1193.42 meV to -220.60 meV
       hydro 2 p 1.8
       hydro 3 d 6.8
       hydro 3 s 5.8
  #  "Second tier" - improvements: -80.21 meV to -6.86 meV
  #     hydro 4 f 10.8
  #     hydro 3 p 5.8
  #     hydro 1 s 0.8
  #     hydro 5 g 16
  #     hydro 3 d 4.9
  #  "Third tier" - improvements: -4.29 meV to -0.53 meV
  #     hydro 3 s 16
  #     ionic 2 p auto
  #     hydro 3 d 6.6
  #     hydro 4 f 11.6
  #  "Fourth tier" - improvements: -0.75 meV to -0.25 meV
  #     hydro 2 p 4.5
  #     hydro 2 s 2.4
  #     hydro 5 g 14.4
  #     hydro 4 d 14.4
  #     hydro 4 f 16.8
  # Further basis functions - -0.21 meV and below
  #     hydro 3 p 14.8
  #     hydro 3 s 4.4
  #     hydro 3 d 19.6
  #     hydro 5 g 12.8
  
  -----------------------------------------------------------------------
  Completed first pass over input file control.in .
  -----------------------------------------------------------------------
  
  
  -----------------------------------------------------------------------
  Parsing geometry.in (first pass over file, find array dimensions only).
  The contents of geometry.in will be repeated verbatim below
  unless switched off by setting 'verbatim_writeout .false.' .
  in the first line of geometry.in .
  -----------------------------------------------------------------------
  
  #===============================================================================
  # Created using the Atomic Simulation Environment (ASE)
  
  # Thu May 21 18:42:16 2026
  
  #=======================================================
  lattice_vector 23.0233967954339889 0.0000000000000000 0.0000000000000000
  lattice_vector 11.5116983977169944 19.9388465062550679 0.0000000000000000
  lattice_vector 0.0000000000000000 0.0000000000000000 207.0494467868053334
  atom -17.2699999999999996 -9.9700000000000006 -10.0490000000000066 Ag
  constrain_relaxation .true.
  atom -14.3920754005707501 -9.9700000000000006 -10.0490000000000066 Ag
  constrain_relaxation .true.
  atom -11.5141508011415024 -9.9700000000000006 -10.0490000000000066 Ag
  constrain_relaxation .true.
  atom -8.6362262017122546 -9.9700000000000006 -10.0490000000000066 Ag
  constrain_relaxation .true.
  atom -5.7583016022830051 -9.9700000000000006 -10.0490000000000066 Ag
  constrain_relaxation .true.
  atom -2.8803770028537556 -9.9700000000000006 -10.0490000000000066 Ag
  constrain_relaxation .true.
  atom -0.0024524034245097 -9.9700000000000006 -10.0490000000000066 Ag
  constrain_relaxation .true.
  atom 2.8754721960047398 -9.9700000000000006 -10.0490000000000066 Ag
  constrain_relaxation .true.
  atom -15.8310377002853748 -7.4776441867181171 -10.0490000000000066 Ag
  constrain_relaxation .true.
  atom -12.9531131008561271 -7.4776441867181171 -10.0490000000000066 Ag
  constrain_relaxation .true.
  atom -10.0751885014268776 -7.4776441867181171 -10.0490000000000066 Ag
  constrain_relaxation .true.
  atom -7.1972639019976299 -7.4776441867181171 -10.0490000000000066 Ag
  constrain_relaxation .true.
  atom -4.3193393025683804 -7.4776441867181171 -10.0490000000000066 Ag
  constrain_relaxation .true.
  atom -1.4414147031391309 -7.4776441867181171 -10.0490000000000066 Ag
  constrain_relaxation .true.
  atom 1.4365098962901151 -7.4776441867181171 -10.0490000000000066 Ag
  constrain_relaxation .true.
  atom 4.3144344957193645 -7.4776441867181171 -10.0490000000000066 Ag
  constrain_relaxation .true.
  atom -14.3920754005707501 -4.9852883734362337 -10.0490000000000066 Ag
  constrain_relaxation .true.
  atom -11.5141508011415024 -4.9852883734362337 -10.0490000000000066 Ag
  constrain_relaxation .true.
  atom -8.6362262017122546 -4.9852883734362337 -10.0490000000000066 Ag
  constrain_relaxation .true.
  atom -5.7583016022830051 -4.9852883734362337 -10.0490000000000066 Ag
  constrain_relaxation .true.
  atom -2.8803770028537556 -4.9852883734362337 -10.0490000000000066 Ag
  constrain_relaxation .true.
  atom -0.0024524034245061 -4.9852883734362337 -10.0490000000000066 Ag
  constrain_relaxation .true.
  atom 2.8754721960047398 -4.9852883734362337 -10.0490000000000066 Ag
  constrain_relaxation .true.
  atom 5.7533967954339893 -4.9852883734362337 -10.0490000000000066 Ag
  constrain_relaxation .true.
  atom -12.9531131008561271 -2.4929325601543502 -10.0490000000000066 Ag
  constrain_relaxation .true.
  atom -10.0751885014268776 -2.4929325601543502 -10.0490000000000066 Ag
  constrain_relaxation .true.
  atom -7.1972639019976299 -2.4929325601543502 -10.0490000000000066 Ag
  constrain_relaxation .true.
  atom -4.3193393025683822 -2.4929325601543502 -10.0490000000000066 Ag
  constrain_relaxation .true.
  atom -1.4414147031391327 -2.4929325601543502 -10.0490000000000066 Ag
  constrain_relaxation .true.
  atom 1.4365098962901186 -2.4929325601543502 -10.0490000000000066 Ag
  constrain_relaxation .true.
  atom 4.3144344957193645 -2.4929325601543502 -10.0490000000000066 Ag
  constrain_relaxation .true.
  atom 7.1923590951486140 -2.4929325601543502 -10.0490000000000066 Ag
  constrain_relaxation .true.
  atom -11.5141508011415024 -0.0005767468724667 -10.0490000000000066 Ag
  constrain_relaxation .true.
  atom -8.6362262017122546 -0.0005767468724667 -10.0490000000000066 Ag
  constrain_relaxation .true.
  atom -5.7583016022830051 -0.0005767468724667 -10.0490000000000066 Ag
  constrain_relaxation .true.
  atom -2.8803770028537574 -0.0005767468724667 -10.0490000000000066 Ag
  constrain_relaxation .true.
  atom -0.0024524034245097 -0.0005767468724667 -10.0490000000000066 Ag
  constrain_relaxation .true.
  atom 2.8754721960047398 -0.0005767468724667 -10.0490000000000066 Ag
  constrain_relaxation .true.
  atom 5.7533967954339893 -0.0005767468724667 -10.0490000000000066 Ag
  constrain_relaxation .true.
  atom 8.6313213948632388 -0.0005767468724667 -10.0490000000000066 Ag
  constrain_relaxation .true.
  atom -10.0751885014268776 2.4917790664094159 -10.0490000000000066 Ag
  constrain_relaxation .true.
  atom -7.1972639019976299 2.4917790664094159 -10.0490000000000066 Ag
  constrain_relaxation .true.
  atom -4.3193393025683804 2.4917790664094159 -10.0490000000000066 Ag
  constrain_relaxation .true.
  atom -1.4414147031391327 2.4917790664094159 -10.0490000000000066 Ag
  constrain_relaxation .true.
  atom 1.4365098962901151 2.4917790664094159 -10.0490000000000066 Ag
  constrain_relaxation .true.
  atom 4.3144344957193645 2.4917790664094159 -10.0490000000000066 Ag
  constrain_relaxation .true.
  atom 7.1923590951486105 2.4917790664094159 -10.0490000000000066 Ag
  constrain_relaxation .true.
  atom 10.0702836945778600 2.4917790664094159 -10.0490000000000066 Ag
  constrain_relaxation .true.
  atom -8.6362262017122546 4.9841348796913003 -10.0490000000000066 Ag
  constrain_relaxation .true.
  atom -5.7583016022830051 4.9841348796913003 -10.0490000000000066 Ag
  constrain_relaxation .true.
  atom -2.8803770028537556 4.9841348796913003 -10.0490000000000066 Ag
  constrain_relaxation .true.
  atom -0.0024524034245097 4.9841348796913003 -10.0490000000000066 Ag
  constrain_relaxation .true.
  atom 2.8754721960047398 4.9841348796913003 -10.0490000000000066 Ag
  constrain_relaxation .true.
  atom 5.7533967954339893 4.9841348796913003 -10.0490000000000066 Ag
  constrain_relaxation .true.
  atom 8.6313213948632352 4.9841348796913003 -10.0490000000000066 Ag
  constrain_relaxation .true.
  atom 11.5092459942924847 4.9841348796913003 -10.0490000000000066 Ag
  constrain_relaxation .true.
  atom -7.1972639019976299 7.4764906929731847 -10.0490000000000066 Ag
  constrain_relaxation .true.
  atom -4.3193393025683804 7.4764906929731847 -10.0490000000000066 Ag
  constrain_relaxation .true.
  atom -1.4414147031391327 7.4764906929731847 -10.0490000000000066 Ag
  constrain_relaxation .true.
  atom 1.4365098962901151 7.4764906929731847 -10.0490000000000066 Ag
  constrain_relaxation .true.
  atom 4.3144344957193645 7.4764906929731847 -10.0490000000000066 Ag
  constrain_relaxation .true.
  atom 7.1923590951486140 7.4764906929731847 -10.0490000000000066 Ag
  constrain_relaxation .true.
  atom 10.0702836945778600 7.4764906929731847 -10.0490000000000066 Ag
  constrain_relaxation .true.
  atom 12.9482082940071095 7.4764906929731847 -10.0490000000000066 Ag
  constrain_relaxation .true.
  atom -15.8310377002853748 -9.1392147289060404 -7.6991844043982240 Ag
  constrain_relaxation .true.
  atom -12.9531131008561271 -9.1392147289060404 -7.6991844043982240 Ag
  constrain_relaxation .true.
  atom -10.0751885014268776 -9.1392147289060404 -7.6991844043982240 Ag
  constrain_relaxation .true.
  atom -7.1972639019976281 -9.1392147289060404 -7.6991844043982240 Ag
  constrain_relaxation .true.
  atom -4.3193393025683804 -9.1392147289060404 -7.6991844043982240 Ag
  constrain_relaxation .true.
  atom -1.4414147031391327 -9.1392147289060404 -7.6991844043982240 Ag
  constrain_relaxation .true.
  atom 1.4365098962901151 -9.1392147289060404 -7.6991844043982240 Ag
  constrain_relaxation .true.
  atom 4.3144344957193645 -9.1392147289060404 -7.6991844043982240 Ag
  constrain_relaxation .true.
  atom -14.3920754005707501 -6.6468589156241560 -7.6991844043982240 Ag
  constrain_relaxation .true.
  atom -11.5141508011415024 -6.6468589156241560 -7.6991844043982240 Ag
  constrain_relaxation .true.
  atom -8.6362262017122529 -6.6468589156241560 -7.6991844043982240 Ag
  constrain_relaxation .true.
  atom -5.7583016022830051 -6.6468589156241560 -7.6991844043982240 Ag
  constrain_relaxation .true.
  atom -2.8803770028537574 -6.6468589156241560 -7.6991844043982240 Ag
  constrain_relaxation .true.
  atom -0.0024524034245097 -6.6468589156241560 -7.6991844043982240 Ag
  constrain_relaxation .true.
  atom 2.8754721960047398 -6.6468589156241560 -7.6991844043982240 Ag
  constrain_relaxation .true.
  atom 5.7533967954339893 -6.6468589156241560 -7.6991844043982240 Ag
  constrain_relaxation .true.
  atom -12.9531131008561253 -4.1545031023422725 -7.6991844043982240 Ag
  constrain_relaxation .true.
  atom -10.0751885014268794 -4.1545031023422725 -7.6991844043982240 Ag
  constrain_relaxation .true.
  atom -7.1972639019976281 -4.1545031023422725 -7.6991844043982240 Ag
  constrain_relaxation .true.
  atom -4.3193393025683804 -4.1545031023422725 -7.6991844043982240 Ag
  constrain_relaxation .true.
  atom -1.4414147031391327 -4.1545031023422725 -7.6991844043982240 Ag
  constrain_relaxation .true.
  atom 1.4365098962901151 -4.1545031023422725 -7.6991844043982240 Ag
  constrain_relaxation .true.
  atom 4.3144344957193645 -4.1545031023422725 -7.6991844043982240 Ag
  constrain_relaxation .true.
  atom 7.1923590951486140 -4.1545031023422725 -7.6991844043982240 Ag
  constrain_relaxation .true.
  atom -11.5141508011415024 -1.6621472890603890 -7.6991844043982240 Ag
  constrain_relaxation .true.
  atom -8.6362262017122546 -1.6621472890603890 -7.6991844043982240 Ag
  constrain_relaxation .true.
  atom -5.7583016022830051 -1.6621472890603890 -7.6991844043982240 Ag
  constrain_relaxation .true.
  atom -2.8803770028537556 -1.6621472890603890 -7.6991844043982240 Ag
  constrain_relaxation .true.
  atom -0.0024524034245097 -1.6621472890603890 -7.6991844043982240 Ag
  constrain_relaxation .true.
  atom 2.8754721960047398 -1.6621472890603890 -7.6991844043982240 Ag
  constrain_relaxation .true.
  atom 5.7533967954339893 -1.6621472890603890 -7.6991844043982240 Ag
  constrain_relaxation .true.
  atom 8.6313213948632388 -1.6621472890603890 -7.6991844043982240 Ag
  constrain_relaxation .true.
  atom -10.0751885014268794 0.8302085242214936 -7.6991844043982240 Ag
  constrain_relaxation .true.
  atom -7.1972639019976299 0.8302085242214936 -7.6991844043982240 Ag
  constrain_relaxation .true.
  atom -4.3193393025683804 0.8302085242214936 -7.6991844043982240 Ag
  constrain_relaxation .true.
  atom -1.4414147031391327 0.8302085242214936 -7.6991844043982240 Ag
  constrain_relaxation .true.
  atom 1.4365098962901151 0.8302085242214936 -7.6991844043982240 Ag
  constrain_relaxation .true.
  atom 4.3144344957193645 0.8302085242214936 -7.6991844043982240 Ag
  constrain_relaxation .true.
  atom 7.1923590951486140 0.8302085242214936 -7.6991844043982240 Ag
  constrain_relaxation .true.
  atom 10.0702836945778635 0.8302085242214936 -7.6991844043982240 Ag
  constrain_relaxation .true.
  atom -8.6362262017122546 3.3225643375033780 -7.6991844043982240 Ag
  constrain_relaxation .true.
  atom -5.7583016022830051 3.3225643375033780 -7.6991844043982240 Ag
  constrain_relaxation .true.
  atom -2.8803770028537556 3.3225643375033780 -7.6991844043982240 Ag
  constrain_relaxation .true.
  atom -0.0024524034245061 3.3225643375033780 -7.6991844043982240 Ag
  constrain_relaxation .true.
  atom 2.8754721960047398 3.3225643375033780 -7.6991844043982240 Ag
  constrain_relaxation .true.
  atom 5.7533967954339893 3.3225643375033780 -7.6991844043982240 Ag
  constrain_relaxation .true.
  atom 8.6313213948632388 3.3225643375033780 -7.6991844043982240 Ag
  constrain_relaxation .true.
  atom 11.5092459942924883 3.3225643375033780 -7.6991844043982240 Ag
  constrain_relaxation .true.
  atom -7.1972639019976299 5.8149201507852606 -7.6991844043982240 Ag
  constrain_relaxation .true.
  atom -4.3193393025683822 5.8149201507852606 -7.6991844043982240 Ag
  constrain_relaxation .true.
  atom -1.4414147031391327 5.8149201507852606 -7.6991844043982240 Ag
  constrain_relaxation .true.
  atom 1.4365098962901151 5.8149201507852606 -7.6991844043982240 Ag
  constrain_relaxation .true.
  atom 4.3144344957193645 5.8149201507852606 -7.6991844043982240 Ag
  constrain_relaxation .true.
  atom 7.1923590951486105 5.8149201507852606 -7.6991844043982240 Ag
  constrain_relaxation .true.
  atom 10.0702836945778600 5.8149201507852606 -7.6991844043982240 Ag
  constrain_relaxation .true.
  atom 12.9482082940071095 5.8149201507852606 -7.6991844043982240 Ag
  constrain_relaxation .true.
  atom -5.7583016022830051 8.3072759640671432 -7.6991844043982240 Ag
  constrain_relaxation .true.
  atom -2.8803770028537574 8.3072759640671432 -7.6991844043982240 Ag
  constrain_relaxation .true.
  atom -0.0024524034245061 8.3072759640671432 -7.6991844043982240 Ag
  constrain_relaxation .true.
  atom 2.8754721960047398 8.3072759640671432 -7.6991844043982240 Ag
  constrain_relaxation .true.
  atom 5.7533967954339893 8.3072759640671432 -7.6991844043982240 Ag
  constrain_relaxation .true.
  atom 8.6313213948632352 8.3072759640671432 -7.6991844043982240 Ag
  constrain_relaxation .true.
  atom 11.5092459942924847 8.3072759640671432 -7.6991844043982240 Ag
  constrain_relaxation .true.
  atom 14.3871705937217342 8.3072759640671432 -7.6991844043982240 Ag
  constrain_relaxation .true.
  atom -17.2699999999999996 -8.3084294578120783 -5.3493688087964557 Ag
  atom -14.3920754005707501 -8.3084294578120783 -5.3493688087964557 Ag
  atom -11.5141508011415024 -8.3084294578120783 -5.3493688087964557 Ag
  atom -8.6362262017122546 -8.3084294578120783 -5.3493688087964557 Ag
  atom -5.7583016022830051 -8.3084294578120783 -5.3493688087964557 Ag
  atom -2.8803770028537556 -8.3084294578120783 -5.3493688087964557 Ag
  atom -0.0024524034245061 -8.3084294578120783 -5.3493688087964557 Ag
  atom 2.8754721960047434 -8.3084294578120783 -5.3493688087964557 Ag
  atom -15.8310377002853748 -5.8160736445301948 -5.3493688087964557 Ag
  atom -12.9531131008561253 -5.8160736445301948 -5.3493688087964557 Ag
  atom -10.0751885014268776 -5.8160736445301948 -5.3493688087964557 Ag
  atom -7.1972639019976299 -5.8160736445301948 -5.3493688087964557 Ag
  atom -4.3193393025683804 -5.8160736445301948 -5.3493688087964557 Ag
  atom -1.4414147031391309 -5.8160736445301948 -5.3493688087964557 Ag
  atom 1.4365098962901151 -5.8160736445301948 -5.3493688087964557 Ag
  atom 4.3144344957193645 -5.8160736445301948 -5.3493688087964557 Ag
  atom -14.3920754005707501 -3.3237178312483113 -5.3493688087964557 Ag
  atom -11.5141508011415024 -3.3237178312483113 -5.3493688087964557 Ag
  atom -8.6362262017122529 -3.3237178312483113 -5.3493688087964557 Ag
  atom -5.7583016022830051 -3.3237178312483113 -5.3493688087964557 Ag
  atom -2.8803770028537556 -3.3237178312483113 -5.3493688087964557 Ag
  atom -0.0024524034245061 -3.3237178312483113 -5.3493688087964557 Ag
  atom 2.8754721960047398 -3.3237178312483113 -5.3493688087964557 Ag
  atom 5.7533967954339893 -3.3237178312483113 -5.3493688087964557 Ag
  atom -12.9531131008561271 -0.8313620179664287 -5.3493688087964557 Ag
  atom -10.0751885014268776 -0.8313620179664287 -5.3493688087964557 Ag
  atom -7.1972639019976299 -0.8313620179664287 -5.3493688087964557 Ag
  atom -4.3193393025683822 -0.8313620179664287 -5.3493688087964557 Ag
  atom -1.4414147031391327 -0.8313620179664287 -5.3493688087964557 Ag
  atom 1.4365098962901186 -0.8313620179664287 -5.3493688087964557 Ag
  atom 4.3144344957193645 -0.8313620179664287 -5.3493688087964557 Ag
  atom 7.1923590951486140 -0.8313620179664287 -5.3493688087964557 Ag
  atom -11.5141508011415006 1.6609937953154557 -5.3493688087964557 Ag
  atom -8.6362262017122529 1.6609937953154557 -5.3493688087964557 Ag
  atom -5.7583016022830051 1.6609937953154557 -5.3493688087964557 Ag
  atom -2.8803770028537574 1.6609937953154557 -5.3493688087964557 Ag
  atom -0.0024524034245061 1.6609937953154557 -5.3493688087964557 Ag
  atom 2.8754721960047434 1.6609937953154557 -5.3493688087964557 Ag
  atom 5.7533967954339893 1.6609937953154557 -5.3493688087964557 Ag
  atom 8.6313213948632388 1.6609937953154557 -5.3493688087964557 Ag
  atom -10.0751885014268776 4.1533496085973400 -5.3493688087964557 Ag
  atom -7.1972639019976281 4.1533496085973400 -5.3493688087964557 Ag
  atom -4.3193393025683804 4.1533496085973400 -5.3493688087964557 Ag
  atom -1.4414147031391327 4.1533496085973400 -5.3493688087964557 Ag
  atom 1.4365098962901186 4.1533496085973400 -5.3493688087964557 Ag
  atom 4.3144344957193681 4.1533496085973400 -5.3493688087964557 Ag
  atom 7.1923590951486140 4.1533496085973400 -5.3493688087964557 Ag
  atom 10.0702836945778635 4.1533496085973400 -5.3493688087964557 Ag
  atom -8.6362262017122529 6.6457054218792226 -5.3493688087964557 Ag
  atom -5.7583016022830051 6.6457054218792226 -5.3493688087964557 Ag
  atom -2.8803770028537556 6.6457054218792226 -5.3493688087964557 Ag
  atom -0.0024524034245097 6.6457054218792226 -5.3493688087964557 Ag
  atom 2.8754721960047398 6.6457054218792226 -5.3493688087964557 Ag
  atom 5.7533967954339893 6.6457054218792226 -5.3493688087964557 Ag
  atom 8.6313213948632388 6.6457054218792226 -5.3493688087964557 Ag
  atom 11.5092459942924883 6.6457054218792226 -5.3493688087964557 Ag
  atom -7.1972639019976281 9.1380612351611052 -5.3493688087964557 Ag
  atom -4.3193393025683804 9.1380612351611052 -5.3493688087964557 Ag
  atom -1.4414147031391309 9.1380612351611052 -5.3493688087964557 Ag
  atom 1.4365098962901151 9.1380612351611052 -5.3493688087964557 Ag
  atom 4.3144344957193645 9.1380612351611052 -5.3493688087964557 Ag
  atom 7.1923590951486140 9.1380612351611052 -5.3493688087964557 Ag
  atom 10.0702836945778635 9.1380612351611052 -5.3493688087964557 Ag
  atom 12.9482082940071130 9.1380612351611052 -5.3493688087964557 Ag
  atom -17.2699999999999996 -9.9700000000000006 -2.9995532131946732 Ag
  atom -14.3920754005707501 -9.9700000000000006 -2.9995532131946732 Ag
  atom -11.5141508011415024 -9.9700000000000006 -2.9995532131946732 Ag
  atom -8.6362262017122546 -9.9700000000000006 -2.9995532131946732 Ag
  atom -5.7583016022830051 -9.9700000000000006 -2.9995532131946732 Ag
  atom -2.8803770028537556 -9.9700000000000006 -2.9995532131946732 Ag
  atom -0.0024524034245097 -9.9700000000000006 -2.9995532131946732 Ag
  atom 2.8754721960047398 -9.9700000000000006 -2.9995532131946732 Ag
  atom -15.8310377002853748 -7.4776441867181171 -2.9995532131946732 Ag
  atom -12.9531131008561271 -7.4776441867181171 -2.9995532131946732 Ag
  atom -10.0751885014268776 -7.4776441867181171 -2.9995532131946732 Ag
  atom -7.1972639019976299 -7.4776441867181171 -2.9995532131946732 Ag
  atom -4.3193393025683804 -7.4776441867181171 -2.9995532131946732 Ag
  atom -1.4414147031391309 -7.4776441867181171 -2.9995532131946732 Ag
  atom 1.4365098962901151 -7.4776441867181171 -2.9995532131946732 Ag
  atom 4.3144344957193645 -7.4776441867181171 -2.9995532131946732 Ag
  atom -14.3920754005707501 -4.9852883734362337 -2.9995532131946732 Ag
  atom -11.5141508011415024 -4.9852883734362337 -2.9995532131946732 Ag
  atom -8.6362262017122546 -4.9852883734362337 -2.9995532131946732 Ag
  atom -5.7583016022830051 -4.9852883734362337 -2.9995532131946732 Ag
  atom -2.8803770028537556 -4.9852883734362337 -2.9995532131946732 Ag
  atom -0.0024524034245061 -4.9852883734362337 -2.9995532131946732 Ag
  atom 2.8754721960047398 -4.9852883734362337 -2.9995532131946732 Ag
  atom 5.7533967954339893 -4.9852883734362337 -2.9995532131946732 Ag
  atom -12.9531131008561271 -2.4929325601543502 -2.9995532131946732 Ag
  atom -10.0751885014268776 -2.4929325601543502 -2.9995532131946732 Ag
  atom -7.1972639019976299 -2.4929325601543502 -2.9995532131946732 Ag
  atom -4.3193393025683822 -2.4929325601543502 -2.9995532131946732 Ag
  atom -1.4414147031391327 -2.4929325601543502 -2.9995532131946732 Ag
  atom 1.4365098962901186 -2.4929325601543502 -2.9995532131946732 Ag
  atom 4.3144344957193645 -2.4929325601543502 -2.9995532131946732 Ag
  atom 7.1923590951486140 -2.4929325601543502 -2.9995532131946732 Ag
  atom -11.5141508011415024 -0.0005767468724667 -2.9995532131946732 Ag
  atom -8.6362262017122546 -0.0005767468724667 -2.9995532131946732 Ag
  atom -5.7583016022830051 -0.0005767468724667 -2.9995532131946732 Ag
  atom -2.8803770028537574 -0.0005767468724667 -2.9995532131946732 Ag
  atom -0.0024524034245097 -0.0005767468724667 -2.9995532131946732 Ag
  atom 2.8754721960047398 -0.0005767468724667 -2.9995532131946732 Ag
  atom 5.7533967954339893 -0.0005767468724667 -2.9995532131946732 Ag
  atom 8.6313213948632388 -0.0005767468724667 -2.9995532131946732 Ag
  atom -10.0751885014268776 2.4917790664094159 -2.9995532131946732 Ag
  atom -7.1972639019976299 2.4917790664094159 -2.9995532131946732 Ag
  atom -4.3193393025683804 2.4917790664094159 -2.9995532131946732 Ag
  atom -1.4414147031391327 2.4917790664094159 -2.9995532131946732 Ag
  atom 1.4365098962901151 2.4917790664094159 -2.9995532131946732 Ag
  atom 4.3144344957193645 2.4917790664094159 -2.9995532131946732 Ag
  atom 7.1923590951486105 2.4917790664094159 -2.9995532131946732 Ag
  atom 10.0702836945778600 2.4917790664094159 -2.9995532131946732 Ag
  atom -8.6362262017122546 4.9841348796913003 -2.9995532131946732 Ag
  atom -5.7583016022830051 4.9841348796913003 -2.9995532131946732 Ag
  atom -2.8803770028537556 4.9841348796913003 -2.9995532131946732 Ag
  atom -0.0024524034245097 4.9841348796913003 -2.9995532131946732 Ag
  atom 2.8754721960047398 4.9841348796913003 -2.9995532131946732 Ag
  atom 5.7533967954339893 4.9841348796913003 -2.9995532131946732 Ag
  atom 8.6313213948632352 4.9841348796913003 -2.9995532131946732 Ag
  atom 11.5092459942924847 4.9841348796913003 -2.9995532131946732 Ag
  atom -7.1972639019976299 7.4764906929731847 -2.9995532131946732 Ag
  atom -4.3193393025683804 7.4764906929731847 -2.9995532131946732 Ag
  atom -1.4414147031391327 7.4764906929731847 -2.9995532131946732 Ag
  atom 1.4365098962901151 7.4764906929731847 -2.9995532131946732 Ag
  atom 4.3144344957193645 7.4764906929731847 -2.9995532131946732 Ag
  atom 7.1923590951486140 7.4764906929731847 -2.9995532131946732 Ag
  atom 10.0702836945778600 7.4764906929731847 -2.9995532131946732 Ag
  atom 12.9482082940071095 7.4764906929731847 -2.9995532131946732 Ag
  atom 0.0000000000000000 0.0000000000000000 0.0004467868053268 Fe
  atom 2.9686751362760013 1.6173129003260005 0.0007827348383245 N
  atom 1.6173976824679990 -2.9688665400180003 -0.0002312830956726 N
  atom -0.5417623087269980 -1.8382072104649989 0.0063973376983171 N
  atom -1.8381765418249998 0.5419478019550006 -0.0056533851876850 N
  atom 0.5417622912300004 1.8382072151309998 0.0063942433143183 N
  atom 1.8381765409900019 -0.5419477971609989 -0.0056502427976852 N
  atom -1.6173976709150004 2.9688665564559997 -0.0002389112456740 N
  atom -2.9686751266539986 -1.6173128961759993 0.0007829870373257 N
  atom -3.7711805127179989 1.8455369275619997 -0.0304492779566772 C
  atom -2.3213979529699991 1.8492435524940003 -0.0128438223456726 C
  atom -0.2949575446920001 2.9527646682090012 0.0129005355563265 C
  atom 0.4942066242849990 4.1689006897079999 0.0306071616833208 C
  atom -4.1687658542339996 0.4940500768699998 -0.0286147151796854 C
  atom -2.9526454222089988 -0.2948014101470005 -0.0113324082876716 C
  atom -0.1360929688449986 -5.5214734699390000 0.0456432703843177 C
  atom -2.8798090242559997 -4.7139856918719998 0.0427032397613232 C
  atom -1.1672885060569982 -6.4607744573629997 0.0595626314063225 C
  atom -5.5211640547220000 0.1352907604159999 -0.0411680336466844 C
  atom -4.7146086520209991 2.8792614072950009 -0.0462064239156774 C
  atom -6.4608506749999997 1.1659504224070005 -0.0567418539616824 C
  atom -2.5225397418819995 -6.0624016728000001 0.0578180361803220 C
  atom -1.8491123898010002 -2.3212527320460001 0.0126049571283176 C
  atom -1.8455631126849994 -3.7711032656359995 0.0297170091333214 C
  atom 1.8455631034050022 3.7711033353829997 0.0297099029923231 C
  atom 1.8491123694849989 2.3212527456449994 0.0126020260993158 C
  atom -6.0628138310979995 2.5213225480840009 -0.0597315138006849 C
  atom 2.9526454160379991 0.2948013972709997 -0.0113301718776739 C
  atom 4.1687658739790017 -0.4940501153649990 -0.0286112188636736 C
  atom 2.3213979550139996 -1.8492435657410002 -0.0128385559656721 C
  atom 3.7711805245470025 -1.8455369563749997 -0.0304442674436842 C
  atom -0.4942066216259988 -4.1689006055219995 0.0306173121173146 C
  atom 0.2949575320219999 -2.9527646211079999 0.0129076203533174 C
  atom 0.1360929932170016 5.5214736136260001 0.0456276550743269 C
  atom 2.8798090367010012 4.7139857616899992 0.0426942842823195 C
  atom 1.1672885431540010 6.4607746116829983 0.0595450319443245 C
  atom 2.5225397804110017 6.0624018028139997 0.0578038033773254 C
  atom 5.5211640520900005 -0.1352907707189992 -0.0411652382926775 C
  atom 4.7146086795569992 -2.8792614266149998 -0.0462009657386773 C
  atom 6.4608506963589996 -1.1659504308919999 -0.0567385554036832 C
  atom 6.0628138480029996 -2.5213225538539996 -0.0597270979946813 C
  atom 5.8185148195220009 0.9134982528159998 -0.0386998297296799 H
  atom 4.3972597114299994 -3.9221657385409996 -0.0481268199316816 H
  atom 6.8273401218289997 -3.2993475085079993 -0.0727437401786801 H
  atom -5.8185148933789996 -0.9134982392589990 -0.0387015776496753 H
  atom -4.3972595944839998 3.9221656893929993 -0.0481331298256720 H
  atom -6.8273401152959998 3.2993474921370005 -0.0727482711306777 H
  atom -7.5248409538870007 0.9252389555300002 -0.0669513316746730 H
  atom 0.9123941823199999 -5.8198667412439997 0.0467063574833162 H
  atom -3.9224632634559988 -4.3958201584589993 0.0406260506213272 H
  atom -3.3008278572149994 -6.8267571025139997 0.0684228972203158 H
  atom -0.9270411866820005 -7.5248792439409993 0.0721380368013200 H
  atom -0.9123941296909983 5.8198669934420000 0.0466879923723269 H
  atom 3.9224632696820017 4.3958201842540010 0.0406188762513153 H
  atom 3.3008279100940001 6.8267572370619991 0.0684068386863146 H
  atom 0.9270412453860004 7.5248794625170010 0.0721158258773187 H
  atom 7.5248409563590002 -0.9252389446830005 -0.0669487654666767 H
  
  -----------------------------------------------------------------------
  Completed first pass over input file geometry.in .
  -----------------------------------------------------------------------
  

  Basic array size parameters:
  | Number of species                 :        5
  | Number of atoms                   :      313
  | Number of lattice vectors         :        3
  | Max. basis fn. angular momentum   :        3
  | Max. atomic/ionic basis occupied n:        5
  | Max. number of basis fn. types    :        3
  | Max. radial fns per species/type  :       10
  | Max. logarithmic grid size        :     1446
  | Max. radial integration grid size :       62
  | Max. angular integration grid size:      302
  | Max. angular grid division number :        8
  | Radial grid for Hartree potential :     1446
  | Number of spin channels           :        1

  Definition of standardized fundamental physical constants in this FHI-aims run:
  | Using the set of values used in FHI-aims up to 2024, which combines values from
  | different CODATA sets - see constants.f90.
  | Use the 'codata' keyword in control.in to change this selection.

  Memory overcommitment is allowed on your operating system.

------------------------------------------------------------
          Reading file control.in.
------------------------------------------------------------
  XC: Using PBE gradient-corrected functionals.
  Scalar relativistic treatment of kinetic energy: on-site free-atom approximation to ZORA.
  Geometry relaxation: Modified BFGS - TRM (trust radius method) for lattice optimization.
  Convergence accuracy for geometry relaxation: Maximum force <   0.100000E-01 eV/A.
  Requested output level: MD_light
  Found k-point grid:         1         1         1
  Convergence accuracy of self-consistent charge density:  0.1000E-05
  Using dipole correction.

  Reading configuration options for species Ag                  .
  | Found nuclear charge :  47.0000
  | Found atomic mass :    107.86820000000000      amu
  | Found l_max for Hartree potential  :   4
  | Found cutoff potl. onset [A], width [A], scale factor :    3.50000    1.50000    1.00000
  | Threshold for basis-dependent cutoff potential is   0.100000E-03
  | Found data for basic radial integration grid :    62 points, outermost radius =    5.000 A
  | Found multiplier for basic radial grid :   1
  | Found angular grid specification: user-specified.
  | Specified grid contains     5 separate shells.
  | Check grid settings after all constraints further below.
  | Found free-atom valence shell :  5 s   1.000
  | Found free-atom valence shell :  4 p   6.000
  | Found free-atom valence shell :  4 d  10.000
  | Found free-ion valence shell :  5 s   0.000
  | Found free-ion valence shell :  4 p   6.000
  | Found free-ion valence shell :  4 d   9.000
  | Found ionic basis function :  5 p , default cutoff radius.
  | Found hydrogenic basis function :  4 f   7.600
  | Found hydrogenic basis function :  3 s   2.600
  | Found hydrogenic basis function :  4 d   8.400
 | Encountered keyword species, ending the description of species Ag                  .
  Species Ag                  : Missing cutoff potential type.
  Defaulting to exp(1/x)/(1-x)^2 type cutoff potential.
  Species Ag: No 'logarithmic' tag. Using default grid for free atom:
  | Default logarithmic grid data [bohr] : 0.1000E-03 0.1000E+03 0.1012E+01
  | Will include ionic basis functions of  2.0-fold positive Ag                   ion.
  Species Ag: On-site basis accuracy parameter (for Gram-Schmidt orthonormalisation) not specified.
  Using default value basis_acc =  0.1000000E-03.
  Species Ag                  : Using default innermost maximum threshold i_radial=  2 for radial functions.
  Species Ag                  : Default cutoff onset for free atom density etc. : 0.35000000E+01 AA.
  Species Ag                  : Basic radial grid will be enhanced according to radial_multiplier =   1, to contain    62 grid points.

  Reading configuration options for species C                   .
  | Found nuclear charge :   6.0000
  | Found atomic mass :    12.010700000000000      amu
  | Found l_max for Hartree potential  :   4
  | Found cutoff potl. onset [A], width [A], scale factor :    3.50000    1.50000    1.00000
  | Threshold for basis-dependent cutoff potential is   0.100000E-03
  | Found data for basic radial integration grid :    34 points, outermost radius =    5.000 A
  | Found multiplier for basic radial grid :   1
  | Found angular grid specification: user-specified.
  | Specified grid contains     5 separate shells.
  | Check grid settings after all constraints further below.
  | Found free-atom valence shell :  2 s   2.000
  | Found free-atom valence shell :  2 p   2.000
  | Found free-ion valence shell :  2 s   1.000
  | Found free-ion valence shell :  2 p   1.000
  | Found hydrogenic basis function :  2 p   1.700
  | Found hydrogenic basis function :  3 d   6.000
  | Found hydrogenic basis function :  2 s   4.900
 | Encountered keyword species, ending the description of species C                   .
  Species C                   : Missing cutoff potential type.
  Defaulting to exp(1/x)/(1-x)^2 type cutoff potential.
  Species C : No 'logarithmic' tag. Using default grid for free atom:
  | Default logarithmic grid data [bohr] : 0.1000E-03 0.1000E+03 0.1012E+01
  Species C : On-site basis accuracy parameter (for Gram-Schmidt orthonormalisation) not specified.
  Using default value basis_acc =  0.1000000E-03.
  Species C                   : Using default innermost maximum threshold i_radial=  2 for radial functions.
  Species C                   : Default cutoff onset for free atom density etc. : 0.35000000E+01 AA.
  Species C                   : Basic radial grid will be enhanced according to radial_multiplier =   1, to contain    34 grid points.

  Reading configuration options for species Fe                  .
  | Found nuclear charge :  26.0000
  | Found atomic mass :    55.844999999999999      amu
  | Found l_max for Hartree potential  :   4
  | Found cutoff potl. onset [A], width [A], scale factor :    3.50000    1.50000    1.00000
  | Threshold for basis-dependent cutoff potential is   0.100000E-03
  | Found data for basic radial integration grid :    51 points, outermost radius =    5.000 A
  | Found multiplier for basic radial grid :   1
  | Found angular grid specification: user-specified.
  | Specified grid contains     5 separate shells.
  | Check grid settings after all constraints further below.
  | Found free-atom valence shell :  4 s   2.000
  | Found free-atom valence shell :  3 p   6.000
  | Found free-atom valence shell :  3 d   6.000
  | Found free-ion valence shell :  4 s   1.000
  | Found free-ion valence shell :  3 p   6.000
  | Found free-ion valence shell :  3 d   5.000
  | Found hydrogenic basis function :  4 f   9.400
  | Found hydrogenic basis function :  2 p   2.200
  | Found hydrogenic basis function :  3 d   3.100
  | Found ionic basis function :  4 s , default cutoff radius.
 | Encountered keyword species, ending the description of species Fe                  .
  Species Fe                  : Missing cutoff potential type.
  Defaulting to exp(1/x)/(1-x)^2 type cutoff potential.
  Species Fe: No 'logarithmic' tag. Using default grid for free atom:
  | Default logarithmic grid data [bohr] : 0.1000E-03 0.1000E+03 0.1012E+01
  | Will include ionic basis functions of  2.0-fold positive Fe                   ion.
  Species Fe: On-site basis accuracy parameter (for Gram-Schmidt orthonormalisation) not specified.
  Using default value basis_acc =  0.1000000E-03.
  Species Fe                  : Using default innermost maximum threshold i_radial=  2 for radial functions.
  Species Fe                  : Default cutoff onset for free atom density etc. : 0.35000000E+01 AA.
  Species Fe                  : Basic radial grid will be enhanced according to radial_multiplier =   1, to contain    51 grid points.

  Reading configuration options for species H                   .
  | Found nuclear charge :   1.0000
  | Found atomic mass :    1.0079400000000001      amu
  | Found l_max for Hartree potential  :   4
  | Found cutoff potl. onset [A], width [A], scale factor :    3.50000    1.50000    1.00000
  | Threshold for basis-dependent cutoff potential is   0.100000E-03
  | Found data for basic radial integration grid :    24 points, outermost radius =    5.000 A
  | Found multiplier for basic radial grid :   1
  | Found angular grid specification: user-specified.
  | Specified grid contains     5 separate shells.
  | Check grid settings after all constraints further below.
  | Found free-atom valence shell :  1 s   1.000
  | Found free-ion valence shell :  1 s   0.500
  | Found hydrogenic basis function :  2 s   2.100
  | Found hydrogenic basis function :  2 p   3.500
 | Encountered keyword species, ending the description of species H                   .
  Species H                   : Missing cutoff potential type.
  Defaulting to exp(1/x)/(1-x)^2 type cutoff potential.
  Species H : No 'logarithmic' tag. Using default grid for free atom:
  | Default logarithmic grid data [bohr] : 0.1000E-03 0.1000E+03 0.1012E+01
  Species H : On-site basis accuracy parameter (for Gram-Schmidt orthonormalisation) not specified.
  Using default value basis_acc =  0.1000000E-03.
  Species H                   : Using default innermost maximum threshold i_radial=  2 for radial functions.
  Species H                   : Default cutoff onset for free atom density etc. : 0.35000000E+01 AA.
  Species H                   : Basic radial grid will be enhanced according to radial_multiplier =   1, to contain    24 grid points.

  Reading configuration options for species N                   .
  | Found nuclear charge :   7.0000
  | Found atomic mass :    14.006700000000000      amu
  | Found l_max for Hartree potential  :   4
  | Found cutoff potl. onset [A], width [A], scale factor :    3.50000    1.50000    1.00000
  | Threshold for basis-dependent cutoff potential is   0.100000E-03
  | Found data for basic radial integration grid :    35 points, outermost radius =    5.000 A
  | Found multiplier for basic radial grid :   1
  | Found angular grid specification: user-specified.
  | Specified grid contains     5 separate shells.
  | Check grid settings after all constraints further below.
  | Found free-atom valence shell :  2 s   2.000
  | Found free-atom valence shell :  2 p   3.000
  | Found free-ion valence shell :  2 s   1.000
  | Found free-ion valence shell :  2 p   2.000
  | Found hydrogenic basis function :  2 p   1.800
  | Found hydrogenic basis function :  3 d   6.800
  | Found hydrogenic basis function :  3 s   5.800
  Species N                   : Missing cutoff potential type.
  Defaulting to exp(1/x)/(1-x)^2 type cutoff potential.
  Species N : No 'logarithmic' tag. Using default grid for free atom:
  | Default logarithmic grid data [bohr] : 0.1000E-03 0.1000E+03 0.1012E+01
  Species N : On-site basis accuracy parameter (for Gram-Schmidt orthonormalisation) not specified.
  Using default value basis_acc =  0.1000000E-03.
  Species N                   : Using default innermost maximum threshold i_radial=  2 for radial functions.
  Species N                   : Default cutoff onset for free atom density etc. : 0.35000000E+01 AA.
  Species N                   : Basic radial grid will be enhanced according to radial_multiplier =   1, to contain    35 grid points.

  Finished reading input file 'control.in'.

------------------------------------------------------------


------------------------------------------------------------
          Reading geometry description geometry.in.
------------------------------------------------------------
  Found relaxation constraint for atom      1: All coordinates fixed.
  Found relaxation constraint for atom      2: All coordinates fixed.
  Found relaxation constraint for atom      3: All coordinates fixed.
  Found relaxation constraint for atom      4: All coordinates fixed.
  Found relaxation constraint for atom      5: All coordinates fixed.
  Found relaxation constraint for atom      6: All coordinates fixed.
  Found relaxation constraint for atom      7: All coordinates fixed.
  Found relaxation constraint for atom      8: All coordinates fixed.
  Found relaxation constraint for atom      9: All coordinates fixed.
  Found relaxation constraint for atom     10: All coordinates fixed.
  Found relaxation constraint for atom     11: All coordinates fixed.
  Found relaxation constraint for atom     12: All coordinates fixed.
  Found relaxation constraint for atom     13: All coordinates fixed.
  Found relaxation constraint for atom     14: All coordinates fixed.
  Found relaxation constraint for atom     15: All coordinates fixed.
  Found relaxation constraint for atom     16: All coordinates fixed.
  Found relaxation constraint for atom     17: All coordinates fixed.
  Found relaxation constraint for atom     18: All coordinates fixed.
  Found relaxation constraint for atom     19: All coordinates fixed.
  Found relaxation constraint for atom     20: All coordinates fixed.
  Found relaxation constraint for atom     21: All coordinates fixed.
  Found relaxation constraint for atom     22: All coordinates fixed.
  Found relaxation constraint for atom     23: All coordinates fixed.
  Found relaxation constraint for atom     24: All coordinates fixed.
  Found relaxation constraint for atom     25: All coordinates fixed.
  Found relaxation constraint for atom     26: All coordinates fixed.
  Found relaxation constraint for atom     27: All coordinates fixed.
  Found relaxation constraint for atom     28: All coordinates fixed.
  Found relaxation constraint for atom     29: All coordinates fixed.
  Found relaxation constraint for atom     30: All coordinates fixed.
  Found relaxation constraint for atom     31: All coordinates fixed.
  Found relaxation constraint for atom     32: All coordinates fixed.
  Found relaxation constraint for atom     33: All coordinates fixed.
  Found relaxation constraint for atom     34: All coordinates fixed.
  Found relaxation constraint for atom     35: All coordinates fixed.
  Found relaxation constraint for atom     36: All coordinates fixed.
  Found relaxation constraint for atom     37: All coordinates fixed.
  Found relaxation constraint for atom     38: All coordinates fixed.
  Found relaxation constraint for atom     39: All coordinates fixed.
  Found relaxation constraint for atom     40: All coordinates fixed.
  Found relaxation constraint for atom     41: All coordinates fixed.
  Found relaxation constraint for atom     42: All coordinates fixed.
  Found relaxation constraint for atom     43: All coordinates fixed.
  Found relaxation constraint for atom     44: All coordinates fixed.
  Found relaxation constraint for atom     45: All coordinates fixed.
  Found relaxation constraint for atom     46: All coordinates fixed.
  Found relaxation constraint for atom     47: All coordinates fixed.
  Found relaxation constraint for atom     48: All coordinates fixed.
  Found relaxation constraint for atom     49: All coordinates fixed.
  Found relaxation constraint for atom     50: All coordinates fixed.
  Found relaxation constraint for atom     51: All coordinates fixed.
  Found relaxation constraint for atom     52: All coordinates fixed.
  Found relaxation constraint for atom     53: All coordinates fixed.
  Found relaxation constraint for atom     54: All coordinates fixed.
  Found relaxation constraint for atom     55: All coordinates fixed.
  Found relaxation constraint for atom     56: All coordinates fixed.
  Found relaxation constraint for atom     57: All coordinates fixed.
  Found relaxation constraint for atom     58: All coordinates fixed.
  Found relaxation constraint for atom     59: All coordinates fixed.
  Found relaxation constraint for atom     60: All coordinates fixed.
  Found relaxation constraint for atom     61: All coordinates fixed.
  Found relaxation constraint for atom     62: All coordinates fixed.
  Found relaxation constraint for atom     63: All coordinates fixed.
  Found relaxation constraint for atom     64: All coordinates fixed.
  Found relaxation constraint for atom     65: All coordinates fixed.
  Found relaxation constraint for atom     66: All coordinates fixed.
  Found relaxation constraint for atom     67: All coordinates fixed.
  Found relaxation constraint for atom     68: All coordinates fixed.
  Found relaxation constraint for atom     69: All coordinates fixed.
  Found relaxation constraint for atom     70: All coordinates fixed.
  Found relaxation constraint for atom     71: All coordinates fixed.
  Found relaxation constraint for atom     72: All coordinates fixed.
  Found relaxation constraint for atom     73: All coordinates fixed.
  Found relaxation constraint for atom     74: All coordinates fixed.
  Found relaxation constraint for atom     75: All coordinates fixed.
  Found relaxation constraint for atom     76: All coordinates fixed.
  Found relaxation constraint for atom     77: All coordinates fixed.
  Found relaxation constraint for atom     78: All coordinates fixed.
  Found relaxation constraint for atom     79: All coordinates fixed.
  Found relaxation constraint for atom     80: All coordinates fixed.
  Found relaxation constraint for atom     81: All coordinates fixed.
  Found relaxation constraint for atom     82: All coordinates fixed.
  Found relaxation constraint for atom     83: All coordinates fixed.
  Found relaxation constraint for atom     84: All coordinates fixed.
  Found relaxation constraint for atom     85: All coordinates fixed.
  Found relaxation constraint for atom     86: All coordinates fixed.
  Found relaxation constraint for atom     87: All coordinates fixed.
  Found relaxation constraint for atom     88: All coordinates fixed.
  Found relaxation constraint for atom     89: All coordinates fixed.
  Found relaxation constraint for atom     90: All coordinates fixed.
  Found relaxation constraint for atom     91: All coordinates fixed.
  Found relaxation constraint for atom     92: All coordinates fixed.
  Found relaxation constraint for atom     93: All coordinates fixed.
  Found relaxation constraint for atom     94: All coordinates fixed.
  Found relaxation constraint for atom     95: All coordinates fixed.
  Found relaxation constraint for atom     96: All coordinates fixed.
  Found relaxation constraint for atom     97: All coordinates fixed.
  Found relaxation constraint for atom     98: All coordinates fixed.
  Found relaxation constraint for atom     99: All coordinates fixed.
  Found relaxation constraint for atom    100: All coordinates fixed.
  Found relaxation constraint for atom    101: All coordinates fixed.
  Found relaxation constraint for atom    102: All coordinates fixed.
  Found relaxation constraint for atom    103: All coordinates fixed.
  Found relaxation constraint for atom    104: All coordinates fixed.
  Found relaxation constraint for atom    105: All coordinates fixed.
  Found relaxation constraint for atom    106: All coordinates fixed.
  Found relaxation constraint for atom    107: All coordinates fixed.
  Found relaxation constraint for atom    108: All coordinates fixed.
  Found relaxation constraint for atom    109: All coordinates fixed.
  Found relaxation constraint for atom    110: All coordinates fixed.
  Found relaxation constraint for atom    111: All coordinates fixed.
  Found relaxation constraint for atom    112: All coordinates fixed.
  Found relaxation constraint for atom    113: All coordinates fixed.
  Found relaxation constraint for atom    114: All coordinates fixed.
  Found relaxation constraint for atom    115: All coordinates fixed.
  Found relaxation constraint for atom    116: All coordinates fixed.
  Found relaxation constraint for atom    117: All coordinates fixed.
  Found relaxation constraint for atom    118: All coordinates fixed.
  Found relaxation constraint for atom    119: All coordinates fixed.
  Found relaxation constraint for atom    120: All coordinates fixed.
  Found relaxation constraint for atom    121: All coordinates fixed.
  Found relaxation constraint for atom    122: All coordinates fixed.
  Found relaxation constraint for atom    123: All coordinates fixed.
  Found relaxation constraint for atom    124: All coordinates fixed.
  Found relaxation constraint for atom    125: All coordinates fixed.
  Found relaxation constraint for atom    126: All coordinates fixed.
  Found relaxation constraint for atom    127: All coordinates fixed.
  Found relaxation constraint for atom    128: All coordinates fixed.
  | The smallest distance between any two atoms is         1.09011994 AA.
  | The first atom of this pair is atom number                    273 .
  | The second atom of this pair is atom number                   306 .
  | Wigner-Seitz cell of the first atom image           0     0     0 .
  | (The Wigner-Seitz cell of the second atom is 0 0 0  by definition.)

  Symmetry information by spglib:
  | Precision set to  0.1E-04
  | Number of Operations  : 1
  | Space group           : 1
  | International         : P1
  | Schoenflies           : C1^1
  Input structure read successfully.
  The structure contains      313 atoms,  and a total of      12322.000 electrons.

  Input geometry:
  | Unit cell:
  |       23.02339680        0.00000000        0.00000000
  |       11.51169840       19.93884651        0.00000000
  |        0.00000000        0.00000000      207.04944679
  | Atomic structure:
  |       Atom                x [A]            y [A]            z [A]
  |    1: Species Ag          -17.27000000       -9.97000000      -10.04900000
  |    2: Species Ag          -14.39207540       -9.97000000      -10.04900000
  |    3: Species Ag          -11.51415080       -9.97000000      -10.04900000
  |    4: Species Ag           -8.63622620       -9.97000000      -10.04900000
  |    5: Species Ag           -5.75830160       -9.97000000      -10.04900000
  |    6: Species Ag           -2.88037700       -9.97000000      -10.04900000
  |    7: Species Ag           -0.00245240       -9.97000000      -10.04900000
  |    8: Species Ag            2.87547220       -9.97000000      -10.04900000
  |    9: Species Ag          -15.83103770       -7.47764419      -10.04900000
  |   10: Species Ag          -12.95311310       -7.47764419      -10.04900000
  |   11: Species Ag          -10.07518850       -7.47764419      -10.04900000
  |   12: Species Ag           -7.19726390       -7.47764419      -10.04900000
  |   13: Species Ag           -4.31933930       -7.47764419      -10.04900000
  |   14: Species Ag           -1.44141470       -7.47764419      -10.04900000
  |   15: Species Ag            1.43650990       -7.47764419      -10.04900000
  |   16: Species Ag            4.31443450       -7.47764419      -10.04900000
  |   17: Species Ag          -14.39207540       -4.98528837      -10.04900000
  |   18: Species Ag          -11.51415080       -4.98528837      -10.04900000
  |   19: Species Ag           -8.63622620       -4.98528837      -10.04900000
  |   20: Species Ag           -5.75830160       -4.98528837      -10.04900000
  |   21: Species Ag           -2.88037700       -4.98528837      -10.04900000
  |   22: Species Ag           -0.00245240       -4.98528837      -10.04900000
  |   23: Species Ag            2.87547220       -4.98528837      -10.04900000
  |   24: Species Ag            5.75339680       -4.98528837      -10.04900000
  |   25: Species Ag          -12.95311310       -2.49293256      -10.04900000
  |   26: Species Ag          -10.07518850       -2.49293256      -10.04900000
  |   27: Species Ag           -7.19726390       -2.49293256      -10.04900000
  |   28: Species Ag           -4.31933930       -2.49293256      -10.04900000
  |   29: Species Ag           -1.44141470       -2.49293256      -10.04900000
  |   30: Species Ag            1.43650990       -2.49293256      -10.04900000
  |   31: Species Ag            4.31443450       -2.49293256      -10.04900000
  |   32: Species Ag            7.19235910       -2.49293256      -10.04900000
  |   33: Species Ag          -11.51415080       -0.00057675      -10.04900000
  |   34: Species Ag           -8.63622620       -0.00057675      -10.04900000
  |   35: Species Ag           -5.75830160       -0.00057675      -10.04900000
  |   36: Species Ag           -2.88037700       -0.00057675      -10.04900000
  |   37: Species Ag           -0.00245240       -0.00057675      -10.04900000
  |   38: Species Ag            2.87547220       -0.00057675      -10.04900000
  |   39: Species Ag            5.75339680       -0.00057675      -10.04900000
  |   40: Species Ag            8.63132139       -0.00057675      -10.04900000
  |   41: Species Ag          -10.07518850        2.49177907      -10.04900000
  |   42: Species Ag           -7.19726390        2.49177907      -10.04900000
  |   43: Species Ag           -4.31933930        2.49177907      -10.04900000
  |   44: Species Ag           -1.44141470        2.49177907      -10.04900000
  |   45: Species Ag            1.43650990        2.49177907      -10.04900000
  |   46: Species Ag            4.31443450        2.49177907      -10.04900000
  |   47: Species Ag            7.19235910        2.49177907      -10.04900000
  |   48: Species Ag           10.07028369        2.49177907      -10.04900000
  |   49: Species Ag           -8.63622620        4.98413488      -10.04900000
  |   50: Species Ag           -5.75830160        4.98413488      -10.04900000
  |   51: Species Ag           -2.88037700        4.98413488      -10.04900000
  |   52: Species Ag           -0.00245240        4.98413488      -10.04900000
  |   53: Species Ag            2.87547220        4.98413488      -10.04900000
  |   54: Species Ag            5.75339680        4.98413488      -10.04900000
  |   55: Species Ag            8.63132139        4.98413488      -10.04900000
  |   56: Species Ag           11.50924599        4.98413488      -10.04900000
  |   57: Species Ag           -7.19726390        7.47649069      -10.04900000
  |   58: Species Ag           -4.31933930        7.47649069      -10.04900000
  |   59: Species Ag           -1.44141470        7.47649069      -10.04900000
  |   60: Species Ag            1.43650990        7.47649069      -10.04900000
  |   61: Species Ag            4.31443450        7.47649069      -10.04900000
  |   62: Species Ag            7.19235910        7.47649069      -10.04900000
  |   63: Species Ag           10.07028369        7.47649069      -10.04900000
  |   64: Species Ag           12.94820829        7.47649069      -10.04900000
  |   65: Species Ag          -15.83103770       -9.13921473       -7.69918440
  |   66: Species Ag          -12.95311310       -9.13921473       -7.69918440
  |   67: Species Ag          -10.07518850       -9.13921473       -7.69918440
  |   68: Species Ag           -7.19726390       -9.13921473       -7.69918440
  |   69: Species Ag           -4.31933930       -9.13921473       -7.69918440
  |   70: Species Ag           -1.44141470       -9.13921473       -7.69918440
  |   71: Species Ag            1.43650990       -9.13921473       -7.69918440
  |   72: Species Ag            4.31443450       -9.13921473       -7.69918440
  |   73: Species Ag          -14.39207540       -6.64685892       -7.69918440
  |   74: Species Ag          -11.51415080       -6.64685892       -7.69918440
  |   75: Species Ag           -8.63622620       -6.64685892       -7.69918440
  |   76: Species Ag           -5.75830160       -6.64685892       -7.69918440
  |   77: Species Ag           -2.88037700       -6.64685892       -7.69918440
  |   78: Species Ag           -0.00245240       -6.64685892       -7.69918440
  |   79: Species Ag            2.87547220       -6.64685892       -7.69918440
  |   80: Species Ag            5.75339680       -6.64685892       -7.69918440
  |   81: Species Ag          -12.95311310       -4.15450310       -7.69918440
  |   82: Species Ag          -10.07518850       -4.15450310       -7.69918440
  |   83: Species Ag           -7.19726390       -4.15450310       -7.69918440
  |   84: Species Ag           -4.31933930       -4.15450310       -7.69918440
  |   85: Species Ag           -1.44141470       -4.15450310       -7.69918440
  |   86: Species Ag            1.43650990       -4.15450310       -7.69918440
  |   87: Species Ag            4.31443450       -4.15450310       -7.69918440
  |   88: Species Ag            7.19235910       -4.15450310       -7.69918440
  |   89: Species Ag          -11.51415080       -1.66214729       -7.69918440
  |   90: Species Ag           -8.63622620       -1.66214729       -7.69918440
  |   91: Species Ag           -5.75830160       -1.66214729       -7.69918440
  |   92: Species Ag           -2.88037700       -1.66214729       -7.69918440
  |   93: Species Ag           -0.00245240       -1.66214729       -7.69918440
  |   94: Species Ag            2.87547220       -1.66214729       -7.69918440
  |   95: Species Ag            5.75339680       -1.66214729       -7.69918440
  |   96: Species Ag            8.63132139       -1.66214729       -7.69918440
  |   97: Species Ag          -10.07518850        0.83020852       -7.69918440
  |   98: Species Ag           -7.19726390        0.83020852       -7.69918440
  |   99: Species Ag           -4.31933930        0.83020852       -7.69918440
[...]
       atom_frac         0.20860009       -0.16711738       -0.02595270  Ag
       atom_frac         0.33357277       -0.16692601       -0.02593326  Ag
       atom_frac        -0.54168977       -0.04169591       -0.02591124  Ag
       atom_frac        -0.41689963       -0.04171526       -0.02591814  Ag
       atom_frac        -0.29200115       -0.04172516       -0.02591852  Ag
       atom_frac        -0.16692477       -0.04201973       -0.02595833  Ag
       atom_frac        -0.04151976       -0.04134398       -0.02597123  Ag
       atom_frac         0.08266904       -0.04152211       -0.02593544  Ag
       atom_frac         0.20874109       -0.04194772       -0.02596582  Ag
       atom_frac         0.33334714       -0.04165128       -0.02592367  Ag
       atom_frac        -0.54179435        0.08332343       -0.02590996  Ag
       atom_frac        -0.41690862        0.08324728       -0.02592510  Ag
       atom_frac        -0.29202051        0.08335842       -0.02592377  Ag
       atom_frac        -0.16715112        0.08368205       -0.02600463  Ag
       atom_frac        -0.04160055        0.08278396       -0.02593678  Ag
       atom_frac         0.08356827        0.08356991       -0.02600695  Ag
       atom_frac         0.20833574        0.08353750       -0.02589835  Ag
       atom_frac         0.33331266        0.08330855       -0.02591494  Ag
       atom_frac        -0.54171945        0.20831951       -0.02591085  Ag
       atom_frac        -0.41671870        0.20849076       -0.02592303  Ag
       atom_frac        -0.29215138        0.20885809       -0.02592363  Ag
       atom_frac        -0.16713772        0.20876921       -0.02594916  Ag
       atom_frac        -0.04197046        0.20883775       -0.02596519  Ag
       atom_frac         0.08354149        0.20836012       -0.02590070  Ag
       atom_frac         0.20830992        0.20834084       -0.02591050  Ag
       atom_frac         0.33324731        0.20828479       -0.02591127  Ag
       atom_frac        -0.54171144        0.33333390       -0.02591592  Ag
       atom_frac        -0.41684394        0.33358464       -0.02591378  Ag
       atom_frac        -0.29185155        0.33354799       -0.02589903  Ag
       atom_frac        -0.16698040        0.33369087       -0.02593066  Ag
       atom_frac        -0.04171467        0.33342563       -0.02592645  Ag
       atom_frac         0.08325452        0.33337831       -0.02592085  Ag
       atom_frac         0.20820966        0.33331873       -0.02591277  Ag
       atom_frac         0.33324368        0.33332186       -0.02592276  Ag
       atom_frac        -0.54180116        0.45834909       -0.02590931  Ag
       atom_frac        -0.41679124        0.45837096       -0.02590222  Ag
       atom_frac        -0.29192836        0.45846775       -0.02591495  Ag
       atom_frac        -0.16684563        0.45859184       -0.02592672  Ag
       atom_frac        -0.04182379        0.45845358       -0.02591765  Ag
       atom_frac         0.08320720        0.45829716       -0.02591337  Ag
       atom_frac         0.20821533        0.45834570       -0.02591365  Ag
       atom_frac         0.33320736        0.45838463       -0.02591694  Ag
       atom_frac        -0.50013854       -0.49996936       -0.01431276  Ag
       atom_frac        -0.37513267       -0.49997287       -0.01429037  Ag
       atom_frac        -0.25006929       -0.50001161       -0.01430897  Ag
       atom_frac        -0.12511397       -0.50000399       -0.01428597  Ag
       atom_frac        -0.00013835       -0.49995504       -0.01428322  Ag
       atom_frac         0.12485649       -0.49991849       -0.01429178  Ag
       atom_frac         0.24981111       -0.49994804       -0.01431036  Ag
       atom_frac         0.37483581       -0.49994561       -0.01430166  Ag
       atom_frac        -0.50016577       -0.37501263       -0.01429073  Ag
       atom_frac        -0.37520620       -0.37504624       -0.01436306  Ag
       atom_frac        -0.24996259       -0.37503270       -0.01435112  Ag
       atom_frac        -0.12508830       -0.37493322       -0.01428793  Ag
       atom_frac        -0.00022472       -0.37516866       -0.01435527  Ag
       atom_frac         0.12494835       -0.37534804       -0.01442523  Ag
       atom_frac         0.25006101       -0.37518716       -0.01430350  Ag
       atom_frac         0.37480573       -0.37499116       -0.01426463  Ag
       atom_frac        -0.50023724       -0.24997259       -0.01430375  Ag
       atom_frac        -0.37527458       -0.24975948       -0.01434990  Ag
       atom_frac        -0.25015668       -0.24995471       -0.01431059  Ag
       atom_frac        -0.12519181       -0.25003547       -0.01429073  Ag
       atom_frac        -0.00068098       -0.24996083       -0.01443842  Ag
       atom_frac         0.12525203       -0.25027907       -0.01449886  Ag
       atom_frac         0.25010171       -0.25038457       -0.01422618  Ag
       atom_frac         0.37503116       -0.25035010       -0.01431370  Ag
       atom_frac        -0.50025560       -0.12495742       -0.01427486  Ag
       atom_frac        -0.37512436       -0.12490559       -0.01428339  Ag
       atom_frac        -0.25020084       -0.12493088       -0.01428399  Ag
       atom_frac        -0.12539153       -0.12493537       -0.01423372  Ag
       atom_frac        -0.00021951       -0.12510373       -0.01478801  Ag
       atom_frac         0.12536738       -0.12563871       -0.01464995  Ag
       atom_frac         0.25009711       -0.12560934       -0.01451693  Ag
       atom_frac         0.37524228       -0.12521781       -0.01443098  Ag
       atom_frac        -0.50011441        0.00002624       -0.01428457  Ag
       atom_frac        -0.37522845       -0.00004484       -0.01432551  Ag
       atom_frac        -0.25025087       -0.00018476       -0.01442680  Ag
       atom_frac        -0.12537326        0.00012917       -0.01477888  Ag
       atom_frac        -0.00013630        0.00001206       -0.01371916  Ag
       atom_frac         0.12508332        0.00007808       -0.01477363  Ag
       atom_frac         0.25006430        0.00020575       -0.01442214  Ag
       atom_frac         0.37501842        0.00009800       -0.01432449  Ag
       atom_frac        -0.49997984        0.12502185       -0.01428098  Ag
       atom_frac        -0.37547890        0.12523184       -0.01442818  Ag
       atom_frac        -0.25038358        0.12571278       -0.01451761  Ag
       atom_frac        -0.12566744        0.12564460       -0.01464814  Ag
       atom_frac         0.00010799        0.12513570       -0.01478345  Ag
       atom_frac         0.12517571        0.12504373       -0.01423632  Ag
       atom_frac         0.25001334        0.12498748       -0.01428050  Ag
       atom_frac         0.37485958        0.12499659       -0.01429454  Ag
       atom_frac        -0.50005065        0.25004456       -0.01430437  Ag
       atom_frac        -0.37530793        0.25040816       -0.01431599  Ag
       atom_frac        -0.25035266        0.25044879       -0.01422580  Ag
       atom_frac        -0.12547088        0.25031580       -0.01449645  Ag
       atom_frac         0.00037091        0.25010975       -0.01443356  Ag
       atom_frac         0.12492760        0.25016858       -0.01428761  Ag
       atom_frac         0.24993254        0.25004739       -0.01431450  Ag
       atom_frac         0.37502942        0.24983259       -0.01432852  Ag
       atom_frac        -0.50008686        0.37505110       -0.01430201  Ag
       atom_frac        -0.37506605        0.37506138       -0.01426432  Ag
       atom_frac        -0.25033106        0.37523318       -0.01430012  Ag
       atom_frac        -0.12526969        0.37543130       -0.01442863  Ag
       atom_frac        -0.00004167        0.37527337       -0.01435419  Ag
       atom_frac         0.12485850        0.37498288       -0.01429854  Ag
       atom_frac         0.24970870        0.37510748       -0.01432950  Ag
       atom_frac         0.37493380        0.37510325       -0.01433903  Ag
       atom_frac        -0.00004386       -0.00005319       -0.00048029  Fe
       atom_frac         0.08734031        0.08221977        0.00030090  N
       atom_frac         0.14521174       -0.14827709        0.00039953  N
       atom_frac         0.02316231       -0.09239749        0.00013384  N
       atom_frac        -0.09324091        0.02639262        0.00012384  N
       atom_frac        -0.02324949        0.09228939        0.00014600  N
       atom_frac         0.09315375       -0.02649852        0.00013471  N
       atom_frac        -0.14529906        0.14817108        0.00040020  N
       atom_frac        -0.08743058       -0.08232977        0.00027240  N
       atom_frac        -0.21015382        0.09115117        0.00059255  C
       atom_frac        -0.14735024        0.09170270        0.00037121  C
       atom_frac        -0.08765197        0.14790386        0.00040182  C
       atom_frac        -0.08455931        0.20937410        0.00061648  C
       atom_frac        -0.19311092        0.02322380        0.00055780  C
       atom_frac        -0.12038340       -0.01590969        0.00026777  C
       atom_frac         0.13428831       -0.27727631        0.00078726  C
       atom_frac        -0.00472412       -0.23791462        0.00064896  C
       atom_frac         0.11368688       -0.32512895        0.00094972  C
       atom_frac        -0.24269720        0.00493818        0.00069691  C
       atom_frac        -0.27726522        0.14266527        0.00077221  C
       atom_frac        -0.30977640        0.05644481        0.00093446  C
       atom_frac         0.04506831       -0.30568412        0.00088302  C
       atom_frac        -0.02106103       -0.11727960        0.00027224  C
       atom_frac         0.01592336       -0.19007802        0.00054554  C
       atom_frac        -0.01600248        0.18995471        0.00056488  C
       atom_frac         0.02097417        0.11716319        0.00029501  C
       atom_frac        -0.32688536        0.12442831        0.00096857  C
       atom_frac         0.12028815        0.01580352        0.00029015  C
       atom_frac         0.19301014       -0.02332282        0.00057770  C
       atom_frac         0.14726473       -0.09181160        0.00037794  C
       atom_frac         0.21006271       -0.09125347        0.00060261  C
       atom_frac         0.08447710       -0.20948690        0.00060574  C
       atom_frac         0.08756276       -0.14800993        0.00039363  C
       atom_frac        -0.13436100        0.27716813        0.00078844  C
       atom_frac         0.00466196        0.23777644        0.00066702  C
       atom_frac        -0.11374491        0.32500971        0.00094909  C
       atom_frac        -0.04512208        0.30555207        0.00088998  C
       atom_frac         0.24258245       -0.00502109        0.00071866  C
       atom_frac         0.27717919       -0.14275733        0.00077368  C
       atom_frac         0.30966682       -0.05651893        0.00094610  C
       atom_frac         0.32678992       -0.12450737        0.00097008  C
       atom_frac         0.22908169        0.04763735        0.00074430  H
       atom_frac         0.29003306       -0.19522661        0.00081083  H
       atom_frac         0.37950862       -0.16346193        0.00114367  H
       atom_frac        -0.22921109       -0.04771689        0.00071668  H
       atom_frac        -0.29010276        0.19512872        0.00081753  H
       atom_frac        -0.37959846        0.16338759        0.00115026  H
       atom_frac        -0.34958992        0.04387304        0.00105846  H
       atom_frac         0.18725375       -0.29196064        0.00086757  H
       atom_frac        -0.05787086       -0.22256165        0.00064540  H
       atom_frac         0.03063929       -0.34416027        0.00098860  H
       atom_frac         0.15126674       -0.37831655        0.00115155  H
       atom_frac        -0.18733258        0.29187034        0.00086216  H
       atom_frac         0.05781113        0.22241032        0.00066758  H
       atom_frac        -0.03068754        0.34402474        0.00099329  H
       atom_frac        -0.15131898        0.37820350        0.00114249  H
       atom_frac         0.34947598       -0.04394079        0.00106981  H
------------------------------------------------------------

------------------------------------------------------------------------------
  Final output of selected total energy values:

  The following output summarizes some interesting total energy values
  at the end of a run (AFTER all relaxation, molecular dynamics, etc.).

  | Total energy of the DFT / Hartree-Fock s.c.f. calculation      :      -37555467.402378805 eV
  | Final zero-broadening corrected energy (caution - metals only) :      -37555467.512697726 eV
  | For reference only, the value of 1 Hartree used in FHI-aims is :             27.211384500 eV
  | For reference only, the overall average (free atom contribution
  | + realspace contribution) of the electrostatic potential after
  | s.c.f. convergence is                                          :             -1.155319695 eV

  Before relying on these values, please be sure to understand exactly which
  total energy value is referred to by a given number. Different objects may
  all carry the same name 'total energy'. Definitions:

  Total energy of the DFT / Hartree-Fock s.c.f. calculation:
  | Note that this energy does not include ANY quantities calculated after the
  | s.c.f. cycle, in particular not ANY RPA, MP2, etc. many-body perturbation terms.

  Final zero-broadening corrected energy:
  | For metallic systems only, a broadening of the occupation numbers at the Fermi
  | level can be extrapolated back to zero broadening by an electron-gas inspired
  | formula. For all systems that are not real metals, this value can be
  | meaningless and should be avoided.

------------------------------------------------------------------------------
  Methods described in the following list of references were used in this FHI-aims run.
  If you publish the results, please make sure to cite these reference if they apply.
  FHI-aims is an academic code, and for our developers (often, Ph.D. students
  and postdocs), scientific credit in the community is essential.
  Thank you for helping us!

  For any use of FHI-aims, please cite:

    Volker Blum, Ralf Gehrke, Felix Hanke, Paula Havu, Ville Havu,
    Xinguo Ren, Karsten Reuter, and Matthias Scheffler
    'Ab initio molecular simulations with numeric atom-centered orbitals'
    Computer Physics Communications 180, 2175-2196 (2009)
    http://doi.org/10.1016/j.cpc.2009.06.022


  The provided symmetry information was generated with SPGlib:

    Atsushi Togo, Yusuke Seto, Dimitar Pashov
    SPGlib 1.7.3 obtained from http://spglib.sourceforge.net
    Licence: New BSD license
    Copyright (C) 2008 Atsushi Togo


  The ELSI infrastructure was used in your run to solve the Kohn-Sham electronic structure.
  Please check out https://wordpress.elsi-interchange.org to learn more.
  If scalability is important for your project, please acknowledge ELSI by citing:

    V. W-z. Yu, F. Corsetti, A. Garcia, W. P. Huhn, M. Jacquelin, W. Jia,
    B. Lange, L. Lin, J. Lu, W. Mi, A. Seifitokaldani, A. Vazquez-Mayagoitia,
    C. Yang, H. Yang, and V. Blum
    'ELSI: A unified software interface for Kohn-Sham electronic structure solvers'
    Computer Physics Communications 222, 267-285 (2018).
    http://doi.org/10.1016/j.cpc.2017.09.007


  For the real-space grid partitioning and parallelization used in this calculation, please cite:

    Ville Havu, Volker Blum, Paula Havu, and Matthias Scheffler,
    'Efficient O(N) integration for all-electron electronic structure calculation'
    'using numerically tabulated basis functions'
    Journal of Computational Physics 228, 8367-8379 (2009).
    http://doi.org/10.1016/j.jcp.2009.08.008

  Of course, there are many other important community references, e.g., those cited in the
  above references. Our list is limited to references that describe implementations in the
  FHI-aims code. The reason is purely practical (length of this list) - please credit others as well.
------------------------------------------------------------
Warnings summary:

At least    2 warnings were raised during execution.
** WARNING:
 * A warning was issued further up regarding the accuracy of onsite integrals.
   An integral with a negative eigenvalue was among the flagged integrals.
   In most standard situations, this warning is probably harmless.
   If needed, this can be verified by adjusting the radial_multiplier flag.
** END OF WARNING
** WARNING:
 * A warning was issued further up regarding the speed of the s.c.f. convergence.
   One or more s.c.f. cycles took more than 50 s.c.f. iterations.
   It might be worth adjusting your convergence settings. For example,
   metals need a larger broadening and a smaller "charge_mix_param" value than semiconduct
ors.
** END OF WARNING

------------------------------------------------------------
          Leaving FHI-aims.
          Date     :  20260521, Time     :  232130.283

          Computational steps:
          | Number of self-consistency cycles          :          638
          | Number of SCF (re)initializations          :           18
          | Number of relaxation steps                 :           17

          Detailed time accounting                     :  max(cpu_time)    wall_clock(cpu1)
          | Total time                                  :    12085.232 s       12178.398 s
          | Preparation time                            :        0.611 s           0.617 s
          | Boundary condition initalization            :        1.740 s           1.761 s
          | Grid partitioning                           :       38.902 s          39.090 s
          | Preloading free-atom quantities on grid     :       19.036 s          19.144 s
          | Free-atom superposition energy              :        2.650 s           2.660 s
          | Total time for integrations                 :     1722.709 s        1734.140 s
          | Total time for solution of K.-S. equations  :     4691.509 s        4726.202 s
          | Total time for EV reorthonormalization      :       59.773 s          60.314 s
          | Total time for density & force components   :     3741.230 s        3763.800 s
          | Total time for mixing & preconditioning     :      809.467 s         797.478 s
          | Total time for Hartree multipole update     :       34.585 s          34.818 s
          | Total time for Hartree multipole sum        :      784.802 s         789.189 s
          | Total time for total energy evaluation      :        0.198 s           0.335 s
          | Total time NSC force correction             :       61.136 s          61.462 s
          | Total time for scaled ZORA corrections      :        0.000 s           0.000 s
          | Total time for vdW-like corrections         :       81.766 s          81.781 s

          Partial memory accounting:
          | Residual value for overall tracked memory usage across tasks:     0.000000 MB (should be 0.000000 MB)
          | Peak values for overall tracked memory usage:
          |   Minimum:       54.679 MB (on task 119 after allocating d_wave)
          |   Maximum:       99.992 MB (on task   1 after allocating d_wave)
          |   Average:       86.386 MB
          | Largest tracked array allocation:
          |   Minimum:        6.973 MB (ovlp on task  83)
          |   Maximum:       15.542 MB (ham_ovlp_work on task 109)
          |   Average:       10.911 MB
          Note:  These values currently only include a subset of arrays which are explicitly tracked.
          The "true" memory usage will be greater.

          Have a nice day.
------------------------------------------------------------
